# vtk DataFile Version 5.1
vtk output
ASCII
DATASET POLYDATA
POINTS 4009 double
2.45076 -0.71174 1 2.45076 -0.71174 1 2.45076 -0.71174 1 
2.45076 -0.71174 1 2.45076 -0.71174 1 2.45076 -0.71174 1 
2.45076 -0.71174 1 2.45076 -0.71174 1 2.45076 -0.71174 1 
2.45076 -0.71174 1 2.45076 -0.71174 1 2.45076 -0.71174 1 
2.45076 -0.71174 1 2.45076 -0.71174 1 2.45076 -0.71174 1 
2.45076 -0.71174 1 2.45076 -0.71174 1 2.45076 -0.71174 1 
2.45076 -0.71174 1 2.45076 -0.71174 1 2.45076 -0.71174 1 
2.45076 -0.71174 1 2.45076 -0.71174 1 2.70958 -0.71174 0.96593 
2.70076 -0.64475 0.96593 2.6749 -0.58233 0.96593 2.63377 -0.52873 0.96593 
2.58017 -0.4876 0.96593 2.51775 -0.46174 0.96593 2.45076 -0.45292 0.96593 
2.38377 -0.46174 0.96593 2.32135 -0.4876 0.96593 2.26775 -0.52873 0.96593 
2.22662 -0.58233 0.96593 2.20076 -0.64475 0.96593 2.19194 -0.71174 0.96593 
2.20076 -0.77873 0.96593 2.22662 -0.84115 0.96593 2.26775 -0.89475 0.96593 
2.32135 -0.93588 0.96593 2.38377 -0.96174 0.96593 2.45076 -0.97056 0.96593 
2.51775 -0.96174 0.96593 2.58017 -0.93588 0.96593 2.63377 -0.89475 0.96593 
2.6749 -0.84115 0.96593 2.70076 -0.77873 0.96593 2.95076 -0.71174 0.86603 
2.93372 -0.58233 0.86603 2.88377 -0.46174 0.86603 2.80431 -0.35819 0.86603 
2.70076 -0.27873 0.86603 2.58017 -0.22878 0.86603 2.45076 -0.21174 0.86603 
2.32135 -0.22878 0.86603 2.20076 -0.27873 0.86603 2.09721 -0.35819 0.86603 
2.01775 -0.46174 0.86603 1.9678 -0.58233 0.86603 1.95076 -0.71174 0.86603 
1.9678 -0.84115 0.86603 2.01775 -0.96174 0.86603 2.09721 -1.06529 0.86603 
2.20076 -1.14475 0.86603 2.32135 -1.1947 0.86603 2.45076 -1.21174 0.86603 
2.58017 -1.1947 0.86603 2.70076 -1.14475 0.86603 2.80431 -1.06529 0.86603 
2.88377 -0.96174 0.86603 2.93372 -0.84115 0.86603 3.13377 -0.52873 0.70711 
3.06313 -0.35819 0.70711 2.95076 -0.21174 0.70711 2.80431 -0.09937 0.70711 
2.63377 -0.02873 0.70711 2.45076 -0.00463 0.70711 2.26775 -0.02873 0.70711 
2.09721 -0.09937 0.70711 1.95076 -0.21174 0.70711 1.76775 -0.52873 0.70711 
1.74365 -0.71174 0.70711 1.76775 -0.89475 0.70711 1.95076 -1.21174 0.70711 
2.09721 -1.32411 0.70711 2.26775 -1.39475 0.70711 2.45076 -1.41885 0.70711 
2.63377 -1.39475 0.70711 3.20076 -0.27873 0.5 3.06313 -0.09937 0.5 
2.22662 -1.54826 0.5 2.45076 -1.57777 0.5 3.28728 -0.22878 0.25882 
3.13377 -0.02873 0.25882 2.20076 -1.64475 0.25882 2.45076 -1.67767 0.25882 
3.31679 -0.21174 0 3.15787 -0.00463 0 2.45076 -1.71174 0 
3.28728 -0.22878 -0.25882 3.13377 -0.02873 -0.25882 2.20076 -1.64475 -0.25882 
2.45076 -1.67767 -0.25882 3.20076 -0.27873 -0.5 3.06313 -0.09937 -0.5 
2.22662 -1.54826 -0.5 2.45076 -1.57777 -0.5 3.13377 -0.52873 -0.70711 
3.06313 -0.35819 -0.70711 2.95076 -0.21174 -0.70711 2.80431 -0.09937 -0.70711 
2.63377 -0.02873 -0.70711 2.45076 -0.00463 -0.70711 2.26775 -0.02873 -0.70711 
2.09721 -0.09937 -0.70711 1.95076 -0.21174 -0.70711 1.76775 -0.52873 -0.70711 
1.74365 -0.71174 -0.70711 1.76775 -0.89475 -0.70711 1.95076 -1.21174 -0.70711 
2.09721 -1.32411 -0.70711 2.26775 -1.39475 -0.70711 2.45076 -1.41885 -0.70711 
2.63377 -1.39475 -0.70711 2.95076 -0.71174 -0.86603 2.93372 -0.58233 -0.86603 
2.88377 -0.46174 -0.86603 2.80431 -0.35819 -0.86603 2.70076 -0.27873 -0.86603 
2.58017 -0.22878 -0.86603 2.45076 -0.21174 -0.86603 2.32135 -0.22878 -0.86603 
2.20076 -0.27873 -0.86603 2.09721 -0.35819 -0.86603 2.01775 -0.46174 -0.86603 
1.9678 -0.58233 -0.86603 1.95076 -0.71174 -0.86603 1.9678 -0.84115 -0.86603 
2.01775 -0.96174 -0.86603 2.09721 -1.06529 -0.86603 2.20076 -1.14475 -0.86603 
2.32135 -1.1947 -0.86603 2.45076 -1.21174 -0.86603 2.58017 -1.1947 -0.86603 
2.70076 -1.14475 -0.86603 2.80431 -1.06529 -0.86603 2.88377 -0.96174 -0.86603 
2.93372 -0.84115 -0.86603 2.70958 -0.71174 -0.96593 2.70076 -0.64475 -0.96593 
2.6749 -0.58233 -0.96593 2.63377 -0.52873 -0.96593 2.58017 -0.4876 -0.96593 
2.51775 -0.46174 -0.96593 2.45076 -0.45292 -0.96593 2.38377 -0.46174 -0.96593 
2.32135 -0.4876 -0.96593 2.26775 -0.52873 -0.96593 2.22662 -0.58233 -0.96593 
2.20076 -0.64475 -0.96593 2.19194 -0.71174 -0.96593 2.20076 -0.77873 -0.96593 
2.22662 -0.84115 -0.96593 2.26775 -0.89475 -0.96593 2.32135 -0.93588 -0.96593 
2.38377 -0.96174 -0.96593 2.45076 -0.97056 -0.96593 2.51775 -0.96174 -0.96593 
2.58017 -0.93588 -0.96593 2.63377 -0.89475 -0.96593 2.6749 -0.84115 -0.96593 
2.70076 -0.77873 -0.96593 2.45076 0.71174 1 2.45076 0.71174 1 
2.45076 0.71174 1 2.45076 0.71174 1 2.45076 0.71174 1 
2.45076 0.71174 1 2.45076 0.71174 1 2.45076 0.71174 1 
2.45076 0.71174 1 2.45076 0.71174 1 2.45076 0.71174 1 
2.45076 0.71174 1 2.45076 0.71174 1 2.45076 0.71174 1 
2.45076 0.71174 1 2.45076 0.71174 1 2.45076 0.71174 1 
2.45076 0.71174 1 2.45076 0.71174 1 2.45076 0.71174 1 
2.45076 0.71174 1 2.45076 0.71174 1 2.45076 0.71174 1 
2.45076 0.71174 1 2.70958 0.71174 0.96593 2.70076 0.77873 0.96593 
2.6749 0.84115 0.96593 2.63377 0.89475 0.96593 2.58017 0.93588 0.96593 
2.51775 0.96174 0.96593 2.45076 0.97056 0.96593 2.38377 0.96174 0.96593 
2.32135 0.93588 0.96593 2.26775 0.89475 0.96593 2.22662 0.84115 0.96593 
2.20076 0.77873 0.96593 2.19194 0.71174 0.96593 2.20076 0.64475 0.96593 
2.22662 0.58233 0.96593 2.26775 0.52873 0.96593 2.32135 0.4876 0.96593 
2.38377 0.46174 0.96593 2.45076 0.45292 0.96593 2.51775 0.46174 0.96593 
2.58017 0.4876 0.96593 2.63377 0.52873 0.96593 2.6749 0.58233 0.96593 
2.70076 0.64475 0.96593 2.95076 0.71174 0.86603 2.93372 0.84115 0.86603 
2.88377 0.96174 0.86603 2.80431 1.06529 0.86603 2.70076 1.14475 0.86603 
2.58017 1.1947 0.86603 2.45076 1.21174 0.86603 2.32135 1.1947 0.86603 
2.20076 1.14475 0.86603 2.09721 1.06529 0.86603 2.01775 0.96174 0.86603 
1.9678 0.84115 0.86603 1.95076 0.71174 0.86603 1.9678 0.58233 0.86603 
2.01775 0.46174 0.86603 2.09721 0.35819 0.86603 2.20076 0.27873 0.86603 
2.32135 0.22878 0.86603 2.45076 0.21174 0.86603 2.58017 0.22878 0.86603 
2.70076 0.27873 0.86603 2.80431 0.35819 0.86603 2.88377 0.46174 0.86603 
2.93372 0.58233 0.86603 2.63377 1.39475 0.70711 2.45076 1.41885 0.70711 
2.26775 1.39475 0.70711 2.09721 1.32411 0.70711 1.95076 1.21174 0.70711 
1.76775 0.89475 0.70711 1.74365 0.71174 0.70711 1.76775 0.52873 0.70711 
1.95076 0.21174 0.70711 2.09721 0.09937 0.70711 2.26775 0.02873 0.70711 
2.45076 0.00463 0.70711 2.63377 0.02873 0.70711 2.80431 0.09937 0.70711 
2.95076 0.21174 0.70711 3.06313 0.35819 0.70711 3.13377 0.52873 0.70711 
2.45076 1.57777 0.5 2.22662 1.54826 0.5 3.06313 0.09937 0.5 
3.20076 0.27873 0.5 2.45076 1.67767 0.25882 2.20076 1.64475 0.25882 
3.13377 0.02873 0.25882 3.28728 0.22878 0.25882 2.45076 1.71174 0 
3.15787 0.00463 0 3.31679 0.21174 0 2.45076 1.67767 -0.25882 
2.20076 1.64475 -0.25882 3.13377 0.02873 -0.25882 3.28728 0.22878 -0.25882 
2.45076 1.57777 -0.5 2.22662 1.54826 -0.5 3.06313 0.09937 -0.5 
3.20076 0.27873 -0.5 2.63377 1.39475 -0.70711 2.45076 1.41885 -0.70711 
2.26775 1.39475 -0.70711 2.09721 1.32411 -0.70711 1.95076 1.21174 -0.70711 
1.76775 0.89475 -0.70711 1.74365 0.71174 -0.70711 1.76775 0.52873 -0.70711 
1.95076 0.21174 -0.70711 2.09721 0.09937 -0.70711 2.26775 0.02873 -0.70711 
2.45076 0.00463 -0.70711 2.63377 0.02873 -0.70711 2.80431 0.09937 -0.70711 
2.95076 0.21174 -0.70711 3.06313 0.35819 -0.70711 3.13377 0.52873 -0.70711 
2.95076 0.71174 -0.86603 2.93372 0.84115 -0.86603 2.88377 0.96174 -0.86603 
2.80431 1.06529 -0.86603 2.70076 1.14475 -0.86603 2.58017 1.1947 -0.86603 
2.45076 1.21174 -0.86603 2.32135 1.1947 -0.86603 2.20076 1.14475 -0.86603 
2.09721 1.06529 -0.86603 2.01775 0.96174 -0.86603 1.9678 0.84115 -0.86603 
1.95076 0.71174 -0.86603 1.9678 0.58233 -0.86603 2.01775 0.46174 -0.86603 
2.09721 0.35819 -0.86603 2.20076 0.27873 -0.86603 2.32135 0.22878 -0.86603 
2.45076 0.21174 -0.86603 2.58017 0.22878 -0.86603 2.70076 0.27873 -0.86603 
2.80431 0.35819 -0.86603 2.88377 0.46174 -0.86603 2.93372 0.58233 -0.86603 
2.70958 0.71174 -0.96593 2.70076 0.77873 -0.96593 2.6749 0.84115 -0.96593 
2.63377 0.89475 -0.96593 2.58017 0.93588 -0.96593 2.51775 0.96174 -0.96593 
2.45076 0.97056 -0.96593 2.38377 0.96174 -0.96593 2.32135 0.93588 -0.96593 
2.26775 0.89475 -0.96593 2.22662 0.84115 -0.96593 2.20076 0.77873 -0.96593 
2.19194 0.71174 -0.96593 2.20076 0.64475 -0.96593 2.22662 0.58233 -0.96593 
2.26775 0.52873 -0.96593 2.32135 0.4876 -0.96593 2.38377 0.46174 -0.96593 
2.45076 0.45292 -0.96593 2.51775 0.46174 -0.96593 2.58017 0.4876 -0.96593 
2.63377 0.52873 -0.96593 2.6749 0.58233 -0.96593 2.70076 0.64475 -0.96593 
1.25139 1.41137 1 1.25139 1.41137 1 1.25139 1.41137 1 
1.25139 1.41137 1 1.25139 1.41137 1 1.25139 1.41137 1 
1.25139 1.41137 1 1.25139 1.41137 1 1.25139 1.41137 1 
1.25139 1.41137 1 1.25139 1.41137 1 1.25139 1.41137 1 
1.25139 1.41137 1 1.25139 1.41137 1 1.25139 1.41137 1 
1.25139 1.41137 1 1.25139 1.41137 1 1.25139 1.41137 1 
1.25139 1.41137 1 1.25139 1.41137 1 1.25139 1.41137 1 
1.25139 1.41137 1 1.25139 1.41137 1 1.25139 1.41137 1 
1.51021 1.41137 0.96593 1.50139 1.47836 0.96593 1.47553 1.54078 0.96593 
1.4344 1.59438 0.96593 1.3808 1.63551 0.96593 1.31838 1.66137 0.96593 
1.25139 1.67019 0.96593 1.1844 1.66137 0.96593 1.12198 1.63551 0.96593 
1.06838 1.59438 0.96593 1.02725 1.54078 0.96593 1.00139 1.47836 0.96593 
0.99257 1.41137 0.96593 1.00139 1.34438 0.96593 1.02725 1.28196 0.96593 
1.06838 1.22836 0.96593 1.12198 1.18723 0.96593 1.1844 1.16137 0.96593 
1.25139 1.15255 0.96593 1.31838 1.16137 0.96593 1.3808 1.18723 0.96593 
1.4344 1.22836 0.96593 1.47553 1.28196 0.96593 1.50139 1.34438 0.96593 
1.75139 1.41137 0.86603 1.73435 1.54078 0.86603 1.6844 1.66137 0.86603 
1.60494 1.76492 0.86603 1.50139 1.84438 0.86603 1.3808 1.89433 0.86603 
1.25139 1.91137 0.86603 1.12198 1.89433 0.86603 1.00139 1.84438 0.86603 
0.89784 1.76492 0.86603 0.81838 1.66137 0.86603 0.76843 1.54078 0.86603 
0.75139 1.41137 0.86603 0.76843 1.28196 0.86603 0.81838 1.16137 0.86603 
0.89784 1.05782 0.86603 1.00139 0.97836 0.86603 1.12198 0.92841 0.86603 
1.25139 0.91137 0.86603 1.3808 0.92841 0.86603 1.50139 0.97836 0.86603 
1.60494 1.05782 0.86603 1.6844 1.16137 0.86603 1.73435 1.28196 0.86603 
[...]
POINT_DATA 4009
SCALARS IMS double
LOOKUP_TABLE default
14.3829 14.3829 14.3829 14.3829 14.3829 14.3829 14.3829 14.3829 14.3829 
14.3829 14.3829 14.3829 14.3829 14.3829 14.3829 14.3829 14.3829 14.3829 
14.3829 14.3829 14.3829 14.3829 14.3829 11.5369 11.9003 12.4759 13.2448 
14.14 15.0539 15.8714 16.5138 16.9645 17.2589 17.4429 17.5292 17.4798 
17.2255 16.7126 15.9482 15.0134 14.0353 13.1391 12.4096 11.8795 11.5417 
11.3754 11.3701 9.2881 9.5687 10.4809 12.1589 14.4516 16.8665 18.7328 
19.6164 19.6486 19.3987 19.4344 19.9704 20.7488 21.1417 20.5095 18.6799 
16.1088 13.537 11.5331 10.3034 9.7416 9.5658 9.4813 9.3524 7.5269 
8.3058 10.9883 15.501 20.676 24.2595 24.577 22.4113 20.0739 20.8874 
24.0242 26.8892 23.3267 17.7277 12.6529 9.4296 8.2066 6.1922 9.7018 
11.2939 7.1364 4.6045 8.4823 9.7496 5.2986 4.0095 7.9329 4.5897 
4.6045 8.4823 9.7496 5.2986 6.1922 9.7018 11.2939 7.1364 7.5269 
8.3058 10.9883 15.501 20.676 24.2595 24.577 22.4113 20.0739 20.8874 
24.0242 26.8892 23.3267 17.7277 12.6529 9.4296 8.2066 9.2881 9.5687 
10.4809 12.1589 14.4516 16.8665 18.7328 19.6164 19.6486 19.3987 19.4344 
19.9704 20.7488 21.1417 20.5095 18.6799 16.1088 13.537 11.5331 10.3034 
9.7416 9.5658 9.4813 9.3524 11.5369 11.9003 12.4759 13.2448 14.14 
15.0539 15.8714 16.5138 16.9645 17.2589 17.4429 17.5292 17.4798 17.2255 
16.7126 15.9482 15.0134 14.0353 13.1391 12.4096 11.8795 11.5417 11.3754 
11.3701 14.3829 14.3829 14.3829 14.3829 14.3829 14.3829 14.3829 14.3829 
14.3829 14.3829 14.3829 14.3829 14.3829 14.3829 14.3829 14.3829 14.3829 
14.3829 14.3829 14.3829 14.3829 14.3829 14.3829 14.3829 11.5369 11.3701 
11.3754 11.5417 11.8795 12.4096 13.1391 14.0353 15.0134 15.9482 16.7126 
17.2255 17.4798 17.5292 17.4429 17.2589 16.9645 16.5138 15.8714 15.0539 
14.14 13.2448 12.4759 11.9003 9.2881 9.3524 9.4813 9.5658 9.7416 
10.3034 11.5331 13.537 16.1088 18.6799 20.5095 21.1417 20.7488 19.9704 
19.4344 19.3987 19.6486 19.6164 18.7328 16.8665 14.4516 12.1589 10.4809 
9.5687 8.2066 9.4296 12.6529 17.7277 23.3267 26.8892 24.0242 20.8874 
20.0739 22.4113 24.577 24.2595 20.676 15.501 10.9883 8.3058 7.5269 
7.1364 11.2939 9.7018 6.1922 5.2986 9.7496 8.4823 4.6045 4.5897 
7.9329 4.0095 5.2986 9.7496 8.4823 4.6045 7.1364 11.2939 9.7018 
6.1922 8.2066 9.4296 12.6529 17.7277 23.3267 26.8892 24.0242 20.8874 
20.0739 22.4113 24.577 24.2595 20.676 15.501 10.9883 8.3058 7.5269 
9.2881 9.3524 9.4813 9.5658 9.7416 10.3034 11.5331 13.537 16.1088 
18.6799 20.5095 21.1417 20.7488 19.9704 19.4344 19.3987 19.6486 19.6164 
18.7328 16.8665 14.4516 12.1589 10.4809 9.5687 11.5369 11.3701 11.3754 
11.5417 11.8795 12.4096 13.1391 14.0353 15.0134 15.9482 16.7126 17.2255 
17.4798 17.5292 17.4429 17.2589 16.9645 16.5138 15.8714 15.0539 14.14 
13.2448 12.4759 11.9003 13.6106 13.6106 13.6106 13.6106 13.6106 13.6106 
13.6106 13.6106 13.6106 13.6106 13.6106 13.6106 13.6106 13.6106 13.6106 
13.6106 13.6106 13.6106 13.6106 13.6106 13.6106 13.6106 13.6106 13.6106 
14.4137 13.4363 12.5383 11.804 11.2641 10.9087 10.714 10.6674 10.7792 
11.076 11.5788 12.2773 13.1145 13.9922 14.8026 15.4693 15.973 16.3406 
16.6062 16.7704 16.7857 16.5779 16.0934 15.3432 15.6722 13.0758 11.062 
9.8283 9.2588 9.064 8.9419 8.7461 8.5731 8.6984 9.42 10.8999 
13.0221 15.3259 17.1669 18.1299 18.3426 18.3369 18.6265 19.3792 20.3079 
20.7731 20.1454 18.2819 17.4268 12.311 9.0843 7.8611 6.6156 7.0475 
9.3527 13.5323 18.4711 21.9717 22.4516 20.7053 18.9091 20.6168 23.9938 
26.9316 23.1332 11.0268 6.9062 4.7647 7.6914 9.5133 5.1507 3.0888 
6.1951 4.4717 2.4737 9.5133 5.1507 3.0888 6.1951 11.0268 6.9062 
4.7647 7.6914 17.4268 12.311 9.0843 7.8611 6.6156 7.0475 9.3527 
13.5323 18.4711 21.9717 22.4516 20.7053 18.9091 20.6168 23.9938 26.9316 
23.1332 15.6722 13.0758 11.062 9.8283 9.2588 9.064 8.9419 8.7461 
8.5731 8.6984 9.42 10.8999 13.0221 15.3259 17.1669 18.1299 18.3426 
18.3369 18.6265 19.3792 20.3079 20.7731 20.1454 18.2819 14.4137 13.4363 
12.5383 11.804 11.2641 10.9087 10.714 10.6674 10.7792 11.076 11.5788 
12.2773 13.1145 13.9922 14.8026 15.4693 15.973 16.3406 16.6062 16.7704 
16.7857 16.5779 16.0934 15.3432 16.4896 16.4896 16.4896 16.4896 16.4896 
16.4896 16.4896 16.4896 16.4896 16.4896 16.4896 16.4896 16.4896 16.4896 
16.4896 16.4896 16.4896 16.4896 16.4896 16.4896 16.4896 16.4896 16.4896 
16.4896 16.9291 16.4445 15.8578 15.2096 14.6027 14.1672 14.0085 14.1672 
14.6027 15.2096 15.8578 16.4445 16.9291 17.3316 17.6971 18.0515 18.3759 
18.6129 18.7007 18.6129 18.3759 18.0515 17.6971 17.3316 18.3886 18.1628 
17.1272 15.2814 13.1692 11.5321 10.9221 11.5321 13.1692 15.2814 17.1272 
18.1628 18.3886 18.2856 18.4208 19.0961 20.2024 21.2652 21.7077 21.2652 
20.2024 19.0961 18.4208 18.2856 20.885 22.5383 21.598 17.6995 12.725 
8.9161 7.5317 8.9161 12.725 17.6995 21.598 22.5383 20.885 18.7079 
17.8348 19.039 22.0279 25.3639 26.8652 25.3639 22.0279 19.039 17.8348 
18.7079 6.7174 4.4951 6.7174 5.1956 2.4463 5.1956 4.6267 1.7347 
4.6267 5.1956 2.4463 5.1956 6.7174 4.4951 6.7174 20.885 22.5383 
21.598 17.6995 12.725 8.9161 7.5317 8.9161 12.725 17.6995 21.598 
22.5383 20.885 18.7079 17.8348 19.039 22.0279 25.3639 26.8652 25.3639 
22.0279 19.039 17.8348 18.7079 18.3886 18.1628 17.1272 15.2814 13.1692 
11.5321 10.9221 11.5321 13.1692 15.2814 17.1272 18.1628 18.3886 18.2856 
18.4208 19.0961 20.2024 21.2652 21.7077 21.2652 20.2024 19.0961 18.4208 
18.2856 16.9291 16.4445 15.8578 15.2096 14.6027 14.1672 14.0085 14.1672 
14.6027 15.2096 15.8578 16.4445 16.9291 17.3316 17.6971 18.0515 18.3759 
18.6129 18.7007 18.6129 18.3759 18.0515 17.6971 17.3316 13.6106 13.6106 
13.6106 13.6106 13.6106 13.6106 13.6106 13.6106 13.6106 13.6106 13.6106 
13.6106 13.6106 13.6106 13.6106 13.6106 13.6106 13.6106 13.6106 13.6106 
13.6106 13.6106 13.6106 13.6106 13.1145 12.2773 11.5788 11.076 10.7792 
10.6674 10.714 10.9087 11.2641 11.804 12.5383 13.4363 14.4137 15.3432 
16.0934 16.5779 16.7857 16.7704 16.6062 16.3406 15.973 15.4693 14.8026 
13.9922 13.0221 10.8999 9.42 8.6984 8.5731 8.7461 8.9419 9.064 
9.2588 9.8283 11.062 13.0758 15.6722 18.2819 20.1454 20.7731 20.3079 
19.3792 18.6265 18.3369 18.3426 18.1299 17.1669 15.3259 13.5323 9.3527 
7.0475 6.6156 7.8611 9.0843 12.311 17.4268 23.1332 26.9316 23.9938 
20.6168 18.9091 20.7053 22.4516 21.9717 18.4711 7.6914 4.7647 6.9062 
11.0268 6.1951 3.0888 5.1507 9.5133 2.4737 4.4717 6.1951 3.0888 
5.1507 9.5133 7.6914 4.7647 6.9062 11.0268 13.5323 9.3527 7.0475 
6.6156 7.8611 9.0843 12.311 17.4268 23.1332 26.9316 23.9938 20.6168 
18.9091 20.7053 22.4516 21.9717 18.4711 13.0221 10.8999 9.42 8.6984 
8.5731 8.7461 8.9419 9.064 9.2588 9.8283 11.062 13.0758 15.6722 
18.2819 20.1454 20.7731 20.3079 19.3792 18.6265 18.3369 18.3426 18.1299 
17.1669 15.3259 13.1145 12.2773 11.5788 11.076 10.7792 10.6674 10.714 
10.9087 11.2641 11.804 12.5383 13.4363 14.4137 15.3432 16.0934 16.5779 
16.7857 16.7704 16.6062 16.3406 15.973 15.4693 14.8026 13.9922 14.3829 
14.3829 14.3829 14.3829 14.3829 14.3829 14.3829 14.3829 14.3829 14.3829 
14.3829 14.3829 14.3829 14.3829 14.3829 14.3829 14.3829 14.3829 14.3829 
14.3829 14.3829 14.3829 14.3829 14.3829 17.4798 17.2255 16.7126 15.9482 
15.0134 14.0353 13.1391 12.4096 11.8795 11.5417 11.3754 11.3701 11.5369 
11.9003 12.4759 13.2448 14.14 15.0539 15.8714 16.5138 16.9645 17.2589 
17.4429 17.5292 20.7488 21.1417 20.5095 18.6799 16.1088 13.537 11.5331 
10.3034 9.7416 9.5658 9.4813 9.3524 9.2881 9.5687 10.4809 12.1589 
14.4516 16.8665 18.7328 19.6164 19.6486 19.3987 19.4344 19.9704 24.0242 
26.8892 23.3267 17.7277 12.6529 9.4296 8.2066 7.5269 8.3058 10.9883 
15.501 20.676 24.2595 24.577 22.4113 20.0739 20.8874 11.2939 7.1364 
6.1922 9.7018 9.7496 5.2986 4.6045 8.4823 4.5897 4.0095 7.9329 
9.7496 5.2986 4.6045 8.4823 11.2939 7.1364 6.1922 9.7018 24.0242 
26.8892 23.3267 17.7277 12.6529 9.4296 8.2066 7.5269 8.3058 10.9883 
15.501 20.676 24.2595 24.577 22.4113 20.0739 20.8874 20.7488 21.1417 
20.5095 18.6799 16.1088 13.537 11.5331 10.3034 9.7416 9.5658 9.4813 
9.3524 9.2881 9.5687 10.4809 12.1589 14.4516 16.8665 18.7328 19.6164 
19.6486 19.3987 19.4344 19.9704 17.4798 17.2255 16.7126 15.9482 15.0134 
14.0353 13.1391 12.4096 11.8795 11.5417 11.3754 11.3701 11.5369 11.9003 
12.4759 13.2448 14.14 15.0539 15.8714 16.5138 16.9645 17.2589 17.4429 
17.5292 14.3829 14.3829 14.3829 14.3829 14.3829 14.3829 14.3829 14.3829 
14.3829 14.3829 14.3829 14.3829 14.3829 14.3829 14.3829 14.3829 14.3829 
14.3829 14.3829 14.3829 14.3829 14.3829 14.3829 14.3829 17.4798 17.5292 
17.4429 17.2589 16.9645 16.5138 15.8714 15.0539 14.14 13.2448 12.4759 
11.9003 11.5369 11.3701 11.3754 11.5417 11.8795 12.4096 13.1391 14.0353 
15.0134 15.9482 16.7126 17.2255 20.7488 19.9704 19.4344 19.3987 19.6486 
19.6164 18.7328 16.8665 14.4516 12.1589 10.4809 9.5687 9.2881 9.3524 
9.4813 9.5658 9.7416 10.3034 11.5331 13.537 16.1088 18.6799 20.5095 
21.1417 24.0242 20.8874 20.0739 22.4113 24.577 24.2595 20.676 15.501 
10.9883 8.3058 7.5269 8.2066 9.4296 12.6529 17.7277 23.3267 26.8892 
9.7018 6.1922 7.1364 11.2939 8.4823 4.6045 5.2986 9.7496 7.9329 
4.0095 4.5897 8.4823 4.6045 5.2986 9.7496 9.7018 6.1922 7.1364 
11.2939 24.0242 20.8874 20.0739 22.4113 24.577 24.2595 20.676 15.501 
10.9883 8.3058 7.5269 8.2066 9.4296 12.6529 17.7277 23.3267 26.8892 
20.7488 19.9704 19.4344 19.3987 19.6486 19.6164 18.7328 16.8665 14.4516 
12.1589 10.4809 9.5687 9.2881 9.3524 9.4813 9.5658 9.7416 10.3034 
11.5331 13.537 16.1088 18.6799 20.5095 21.1417 17.4798 17.5292 17.4429 
17.2589 16.9645 16.5138 15.8714 15.0539 14.14 13.2448 12.4759 11.9003 
11.5369 11.3701 11.3754 11.5417 11.8795 12.4096 13.1391 14.0353 15.0134 
15.9482 16.7126 17.2255 13.6106 13.6106 13.6106 13.6106 13.6106 13.6106 
13.6106 13.6106 13.6106 13.6106 13.6106 13.6106 13.6106 13.6106 13.6106 
13.6106 13.6106 13.6106 13.6106 13.6106 13.6106 13.6106 13.6106 13.6106 
13.1145 13.9922 14.8026 15.4693 15.973 16.3406 16.6062 16.7704 16.7857 
16.5779 16.0934 15.3432 14.4137 13.4363 12.5383 11.804 11.2641 10.9087 
10.714 10.6674 10.7792 11.076 11.5788 12.2773 13.0221 15.3259 17.1669 
18.1299 18.3426 18.3369 18.6265 19.3792 20.3079 20.7731 20.1454 18.2819 
15.6722 13.0758 11.062 9.8283 9.2588 9.064 8.9419 8.7461 8.5731 
8.6984 9.42 10.8999 13.5323 18.4711 21.9717 22.4516 20.7053 18.9091 
20.6168 23.9938 26.9316 23.1332 17.4268 12.311 9.0843 7.8611 6.6156 
7.0475 9.3527 11.0268 6.9062 4.7647 7.6914 9.5133 5.1507 3.0888 
6.1951 4.4717 2.4737 9.5133 5.1507 3.0888 6.1951 11.0268 6.9062 
4.7647 7.6914 13.5323 18.4711 21.9717 22.4516 20.7053 18.9091 20.6168 
23.9938 26.9316 23.1332 17.4268 12.311 9.0843 7.8611 6.6156 7.0475 
9.3527 13.0221 15.3259 17.1669 18.1299 18.3426 18.3369 18.6265 19.3792 
20.3079 20.7731 20.1454 18.2819 15.6722 13.0758 11.062 9.8283 9.2588 
9.064 8.9419 8.7461 8.5731 8.6984 9.42 10.8999 13.1145 13.9922 
14.8026 15.4693 15.973 16.3406 16.6062 16.7704 16.7857 16.5779 16.0934 
15.3432 14.4137 13.4363 12.5383 11.804 11.2641 10.9087 10.714 10.6674 
10.7792 11.076 11.5788 12.2773 16.4896 16.4896 16.4896 16.4896 16.4896 
16.4896 16.4896 16.4896 16.4896 16.4896 16.4896 16.4896 16.4896 16.4896 
16.4896 16.4896 16.4896 16.4896 16.4896 16.4896 16.4896 16.4896 16.4896 
16.4896 16.9291 17.3316 17.6971 18.0515 18.3759 18.6129 18.7007 18.6129 
18.3759 18.0515 17.6971 17.3316 16.9291 16.4445 15.8578 15.2096 14.6027 
14.1672 14.0085 14.1672 14.6027 15.2096 15.8578 16.4445 18.3886 18.2856 
18.4208 19.0961 20.2024 21.2652 21.7077 21.2652 20.2024 19.0961 18.4208 
18.2856 18.3886 18.1628 17.1272 15.2814 13.1692 11.5321 10.9221 11.5321 
13.1692 15.2814 17.1272 18.1628 20.885 18.7079 17.8348 19.039 22.0279 
25.3639 26.8652 25.3639 22.0279 19.039 17.8348 18.7079 20.885 22.5383 
21.598 17.6995 12.725 8.9161 7.5317 8.9161 12.725 17.6995 21.598 
22.5383 6.7174 4.4951 6.7174 5.1956 2.4463 5.1956 4.6267 1.7347 
4.6267 5.1956 2.4463 5.1956 6.7174 4.4951 6.7174 20.885 18.7079 
17.8348 19.039 22.0279 25.3639 26.8652 25.3639 22.0279 19.039 17.8348 
18.7079 20.885 22.5383 21.598 17.6995 12.725 8.9161 7.5317 8.9161 
12.725 17.6995 21.598 22.5383 18.3886 18.2856 18.4208 19.0961 20.2024 
21.2652 21.7077 21.2652 20.2024 19.0961 18.4208 18.2856 18.3886 18.1628 
17.1272 15.2814 13.1692 11.5321 10.9221 11.5321 13.1692 15.2814 17.1272 
18.1628 16.9291 17.3316 17.6971 18.0515 18.3759 18.6129 18.7007 18.6129 
18.3759 18.0515 17.6971 17.3316 16.9291 16.4445 15.8578 15.2096 14.6027 
14.1672 14.0085 14.1672 14.6027 15.2096 15.8578 16.4445 13.6106 13.6106 
13.6106 13.6106 13.6106 13.6106 13.6106 13.6106 13.6106 13.6106 13.6106 
13.6106 13.6106 13.6106 13.6106 13.6106 13.6106 13.6106 13.6106 13.6106 
13.6106 13.6106 13.6106 13.6106 14.4137 15.3432 16.0934 16.5779 16.7857 
16.7704 16.6062 16.3406 15.973 15.4693 14.8026 13.9922 13.1145 12.2773 
11.5788 11.076 10.7792 10.6674 10.714 10.9087 11.2641 11.804 12.5383 
13.4363 15.6722 18.2819 20.1454 20.7731 20.3079 19.3792 18.6265 18.3369 
18.3426 18.1299 17.1669 15.3259 13.0221 10.8999 9.42 8.6984 8.5731 
8.7461 8.9419 9.064 9.2588 9.8283 11.062 13.0758 17.4268 23.1332 
26.9316 23.9938 20.6168 18.9091 20.7053 22.4516 21.9717 18.4711 13.5323 
9.3527 7.0475 6.6156 7.8611 9.0843 12.311 7.6914 4.7647 6.9062 
11.0268 6.1951 3.0888 5.1507 9.5133 2.4737 4.4717 6.1951 3.0888 
5.1507 9.5133 7.6914 4.7647 6.9062 11.0268 17.4268 23.1332 26.9316 
23.9938 20.6168 18.9091 20.7053 22.4516 21.9717 18.4711 13.5323 9.3527 
7.0475 6.6156 7.8611 9.0843 12.311 15.6722 18.2819 20.1454 20.7731 
20.3079 19.3792 18.6265 18.3369 18.3426 18.1299 17.1669 15.3259 13.0221 
10.8999 9.42 8.6984 8.5731 8.7461 8.9419 9.064 9.2588 9.8283 
11.062 13.0758 14.4137 15.3432 16.0934 16.5779 16.7857 16.7704 16.6062 
16.3406 15.973 15.4693 14.8026 13.9922 13.1145 12.2773 11.5788 11.076 
10.7792 10.6674 10.714 10.9087 11.2641 11.804 12.5383 13.4363 2.2165 
2.2165 2.2165 2.2165 2.2165 2.2165 2.2165 2.2165 2.2165 2.2165 
2.2165 2.2165 2.2165 2.2165 2.2165 2.2165 2.2165 2.2165 2.2165 
2.2165 2.2165 2.2165 2.2165 2.2165 1.1764 1.2895 1.4619 1.7033 
2.0224 2.4207 2.8838 3.3728 3.8217 4.1496 4.2859 4.1988 3.9098 
3.4839 3.0018 2.5331 2.1216 1.7858 1.5267 1.337 1.2074 1.13 
1.0997 1.1147 0.537 0.6427 0.8219 1.1137 1.5818 2.3105 3.3742 
4.7608 6.2786 7.5364 8.0927 7.7222 6.5796 5.0888 3.6692 2.5498 
1.7652 1.2501 0.9204 0.7107 0.5797 0.5044 0.4736 0.4838 0.1451 
0.2124 0.3335 0.5583 1.001 1.8825 3.5304 6.1944 6.8387 4.0174 
2.2237 1.2381 0.7252 0.4512 0.293 0.1954 0.137 0.1103 0.1128 
-0.0871 -0.0541 0.0021 0.1198 0.4266 1.2628 3.3212 3.9256 1.644 
0.6807 0.2996 0.1319 0.0366 -0.0297 -0.0754 -0.0999 -0.1031 -0.2093 
-0.197 -0.1853 -0.1548 0.0082 0.705 2.9556 3.5571 1.0728 0.2566 
0.0281 -0.0483 -0.099 -0.1466 -0.186 -0.21 -0.2164 -0.2474 -0.2418 
-0.2453 -0.2474 -0.1443 0.4799 2.7741 3.3436 0.833 0.0985 -0.0644 
-0.1059 -0.141 -0.1826 -0.2203 -0.2443 -0.2517 -0.2093 -0.197 -0.1853 
-0.1548 0.0082 0.705 2.9556 3.5571 1.0728 0.2566 0.0281 -0.0483 
-0.099 -0.1466 -0.186 -0.21 -0.2164 -0.0871 -0.0541 0.0021 0.1198 
0.4266 1.2628 3.3212 3.9256 1.644 0.6807 0.2996 0.1319 0.0366 
-0.0297 -0.0754 -0.0999 -0.1031 0.1451 0.2124 0.3335 0.5583 1.001 
1.8825 3.5304 6.1944 6.8387 4.0174 2.2237 1.2381 0.7252 0.4512 
0.293 0.1954 0.137 0.1103 0.1128 0.537 0.6427 0.8219 1.1137 
1.5818 2.3105 3.3742 4.7608 6.2786 7.5364 8.0927 7.7222 6.5796 
5.0888 3.6692 2.5498 1.7652 1.2501 0.9204 0.7107 0.5797 0.5044 
0.4736 0.4838 1.1764 1.2895 1.4619 1.7033 2.0224 2.4207 2.8838 
3.3728 3.8217 4.1496 4.2859 4.1988 3.9098 3.4839 3.0018 2.5331 
2.1216 1.7858 1.5267 1.337 1.2074 1.13 1.0997 1.1147 2.2165 
2.2165 2.2165 2.2165 2.2165 2.2165 2.2165 2.2165 2.2165 2.2165 
2.2165 2.2165 2.2165 2.2165 2.2165 2.2165 2.2165 2.2165 2.2165 
2.2165 2.2165 2.2165 2.2165 2.2165 1.1764 1.1147 1.0997 1.13 
1.2074 1.337 1.5267 1.7858 2.1216 2.5331 3.0018 3.4839 3.9098 
4.1988 4.2859 4.1496 3.8217 3.3728 2.8838 2.4207 2.0224 1.7033 
1.4619 1.2895 0.537 0.4838 0.4736 0.5044 0.5797 0.7107 0.9204 
1.2501 1.7652 2.5498 3.6692 5.0888 6.5796 7.7222 8.0927 7.5364 
6.2786 4.7608 3.3742 2.3105 1.5818 1.1137 0.8219 0.6427 0.1451 
0.1128 0.1103 0.137 0.1954 0.293 0.4512 0.7252 1.2381 2.2237 
4.0174 6.8387 6.1944 3.5304 1.8825 1.001 0.5583 0.3335 0.2124 
-0.0871 -0.1031 -0.0999 -0.0754 -0.0297 0.0366 0.1319 0.2996 0.6807 
1.644 3.9256 3.3212 1.2628 0.4266 0.1198 0.0021 -0.0541 -0.2093 
-0.2164 -0.21 -0.186 -0.1466 -0.099 -0.0483 0.0281 0.2566 1.0728 
3.5571 2.9556 0.705 0.0082 -0.1548 -0.1853 -0.197 -0.2474 -0.2517 
-0.2443 -0.2203 -0.1826 -0.141 -0.1059 -0.0644 0.0985 0.833 3.3436 
2.7741 0.4799 -0.1443 -0.2474 -0.2453 -0.2418 -0.2093 -0.2164 -0.21 
-0.186 -0.1466 -0.099 -0.0483 0.0281 0.2566 1.0728 3.5571 2.9556 
0.705 0.0082 -0.1548 -0.1853 -0.197 -0.0871 -0.1031 -0.0999 -0.0754 
-0.0297 0.0366 0.1319 0.2996 0.6807 1.644 3.9256 3.3212 1.2628 
0.4266 0.1198 0.0021 -0.0541 0.1451 0.1128 0.1103 0.137 0.1954 
0.293 0.4512 0.7252 1.2381 2.2237 4.0174 6.8387 6.1944 3.5304 
1.8825 1.001 0.5583 0.3335 0.2124 0.537 0.4838 0.4736 0.5044 
0.5797 0.7107 0.9204 1.2501 1.7652 2.5498 3.6692 5.0888 6.5796 
7.7222 8.0927 7.5364 6.2786 4.7608 3.3742 2.3105 1.5818 1.1137 
0.8219 0.6427 1.1764 1.1147 1.0997 1.13 1.2074 1.337 1.5267 
1.7858 2.1216 2.5331 3.0018 3.4839 3.9098 4.1988 4.2859 4.1496 
3.8217 3.3728 2.8838 2.4207 2.0224 1.7033 1.4619 1.2895 2 
2 2 2 2 2 2 2 2 2 
2 2 2 2 2 2 2 2 2 
2 2 2 2 2 1.936 1.6036 1.3431 1.1482 
1.0104 0.9229 0.8815 0.8851 0.9357 1.0386 1.2016 1.4347 1.7464 
2.1386 2.5972 3.0837 3.5329 3.8648 4.0097 3.9362 3.6648 3.258 
2.7937 2.3388 1.5973 1.085 0.7483 0.5254 0.3769 0.2812 0.2281 
0.2153 0.2465 0.3317 0.4911 0.7622 1.207 1.9111 2.9513 4.3183 
5.8208 7.0718 7.6398 7.3087 6.229 4.8073 3.4456 2.3638 1.087 
0.5683 0.2776 0.0983 -0.0234 -0.1096 -0.168 -0.1994 -0.201 -0.1661 
-0.0782 0.1059 0.4925 1.3034 2.88 5.4799 6.4902 3.7874 2.0545 
0.5498 0.1469 -0.0494 -0.1723 -0.2662 -0.3433 -0.4058 -0.4523 -0.4817 
-0.4934 -0.483 -0.4251 -0.2172 0.4757 2.3844 3.7227 1.5078 0.1438 
-0.1221 -0.2373 -0.32 -0.3963 -0.4683 -0.5336 -0.5897 -0.6367 -0.6787 
-0.7196 -0.7552 -0.7231 -0.2413 1.7852 3.3962 0.9707 -0.007 -0.2138 
-0.298 -0.3667 -0.4373 -0.5077 -0.574 -0.6333 -0.6864 -0.7387 -0.7962 
-0.8632 -0.9009 -0.522 1.519 3.202 0.745 0.1438 -0.1221 -0.2373 
-0.32 -0.3963 -0.4683 -0.5336 -0.5897 -0.6367 -0.6787 -0.7196 -0.7552 
-0.7231 -0.2413 1.7852 3.3962 0.9707 0.5498 0.1469 -0.0494 -0.1723 
-0.2662 -0.3433 -0.4058 -0.4523 -0.4817 -0.4934 -0.483 -0.4251 -0.2172 
0.4757 2.3844 3.7227 1.5078 1.087 0.5683 0.2776 0.0983 -0.0234 
-0.1096 -0.168 -0.1994 -0.201 -0.1661 -0.0782 0.1059 0.4925 1.3034 
2.88 5.4799 6.4902 3.7874 2.0545 1.5973 1.085 0.7483 0.5254 
0.3769 0.2812 0.2281 0.2153 0.2465 0.3317 0.4911 0.7622 1.207 
1.9111 2.9513 4.3183 5.8208 7.0718 7.6398 7.3087 6.229 4.8073 
3.4456 2.3638 1.936 1.6036 1.3431 1.1482 1.0104 0.9229 0.8815 
0.8851 0.9357 1.0386 1.2016 1.4347 1.7464 2.1386 2.5972 3.0837 
3.5329 3.8648 4.0097 3.9362 3.6648 3.258 2.7937 2.3388 2 
2 2 2 2 2 2 2 2 2 
2 2 2 2 2 2 2 2 2 
2 2 2 2 2 1.7464 1.4347 1.2016 1.0386 
0.9357 0.8851 0.8815 0.9229 1.0104 1.1482 1.3431 1.6036 1.936 
2.3388 2.7937 3.258 3.6648 3.9362 4.0097 3.8648 3.5329 3.0837 
2.5972 2.1386 1.207 0.7622 0.4911 0.3317 0.2465 0.2153 0.2281 
0.2812 0.3769 0.5254 0.7483 1.085 1.5973 2.3638 3.4456 4.8073 
6.229 7.3087 7.6398 7.0718 5.8208 4.3183 2.9513 1.9111 0.4925 
0.1059 -0.0782 -0.1661 -0.201 -0.1994 -0.168 -0.1096 -0.0234 0.0983 
0.2776 0.5683 1.087 2.0545 3.7874 6.4902 5.4799 2.88 1.3034 
-0.2172 -0.4251 -0.483 -0.4934 -0.4817 -0.4523 -0.4058 -0.3433 -0.2662 
-0.1723 -0.0494 0.1469 0.5498 1.5078 3.7227 2.3844 0.4757 -0.7231 
-0.7552 -0.7196 -0.6787 -0.6367 -0.5897 -0.5336 -0.4683 -0.3963 -0.32 
-0.2373 -0.1221 0.1438 0.9707 3.3962 1.7852 -0.2413 -0.9009 -0.8632 
-0.7962 -0.7387 -0.6864 -0.6333 -0.574 -0.5077 -0.4373 -0.3667 -0.298 
-0.2138 -0.007 0.745 3.202 1.519 -0.522 -0.7231 -0.7552 -0.7196 
-0.6787 -0.6367 -0.5897 -0.5336 -0.4683 -0.3963 -0.32 -0.2373 -0.1221 
0.1438 0.9707 3.3962 1.7852 -0.2413 -0.2172 -0.4251 -0.483 -0.4934 
-0.4817 -0.4523 -0.4058 -0.3433 -0.2662 -0.1723 -0.0494 0.1469 0.5498 